
*************** JDFTx 1.6.0  ***************

Start date and time: Tue Apr  6 19:42:06 2021
Executable jdftx with command-line: -i Si.in
Running on hosts (process indices):  dhcp-10-31-192-89.dyn.MIT.EDU (0-3)
Divided in process groups (process indices):  0 (0)  1 (1)  2 (2)  3 (3)
Resource initialization completed at t[s]:      0.00
Run totals: 4 processes, 8 threads, 0 GPUs


Input parsed successfully to the following command list (including defaults):

basis kpoint-dependent
coords-type Lattice
core-overlap-check vector
coulomb-interaction Periodic
davidson-band-ratio 1.1
dump End None
dump-name Si1220200.$VAR
elec-cutoff 20 200
elec-eigen-algo Davidson
elec-ex-corr gga-PBE
electronic-minimize  \
	dirUpdateScheme      FletcherReeves \
	linminMethod         DirUpdateRecommended \
	nIterations          100 \
	history              15 \
	knormThreshold       0 \
	energyDiffThreshold  1e-08 \
	nEnergyDiff          2 \
	alphaTstart          1 \
	alphaTmin            1e-10 \
	updateTestStepSize   yes \
	alphaTreduceFactor   0.1 \
	alphaTincreaseFactor 3 \
	nAlphaAdjustMax      3 \
	wolfeEnergy          0.0001 \
	wolfeGradient        0.9 \
	fdTest               no
exchange-regularization WignerSeitzTruncated
fluid None
fluid-ex-corr  lda-PZ
fluid-gummel-loop 10 1.000000e-05
fluid-minimize  \
	dirUpdateScheme      PolakRibiere \
	linminMethod         DirUpdateRecommended \
	nIterations          100 \
	history              15 \
	knormThreshold       0 \
	energyDiffThreshold  0 \
	nEnergyDiff          2 \
	alphaTstart          1 \
	alphaTmin            1e-10 \
	updateTestStepSize   yes \
	alphaTreduceFactor   0.1 \
	alphaTincreaseFactor 3 \
	nAlphaAdjustMax      3 \
	wolfeEnergy          0.0001 \
	wolfeGradient        0.9 \
	fdTest               no
fluid-solvent H2O 55.338 ScalarEOS \
	epsBulk 78.4 \
	pMol 0.92466 \
	epsInf 1.77 \
	Pvap 1.06736e-10 \
	sigmaBulk 4.62e-05 \
	Rvdw 2.61727 \
	Res 1.42 \
	tauNuc 343133 \
	poleEl 15 7 1
forces-output-coords Positions
ion Si   0.000000000000000   0.000000000000000   0.000000000000000 0
ion Si   0.250000000000000   0.250000000000000   0.250000000000000 0
ion-species GBRV/$ID_pbe.uspp
ion-width 0
ionic-minimize  \
	dirUpdateScheme      L-BFGS \
	linminMethod         DirUpdateRecommended \
	nIterations          0 \
	history              15 \
	knormThreshold       0.0001 \
	energyDiffThreshold  1e-06 \
	nEnergyDiff          2 \
	alphaTstart          1 \
	alphaTmin            1e-10 \
	updateTestStepSize   yes \
	alphaTreduceFactor   0.1 \
	alphaTincreaseFactor 3 \
	nAlphaAdjustMax      3 \
	wolfeEnergy          0.0001 \
	wolfeGradient        0.9 \
	fdTest               no
kpoint   0.000000000000   0.000000000000   0.000000000000  1.00000000000000
kpoint-folding 12 12 12 
latt-move-scale 1 1 1
latt-scale 1.88973 1.88973 1.88973 
lattice Face-Centered Cubic 5.43
lattice-minimize  \
	dirUpdateScheme      L-BFGS \
	linminMethod         DirUpdateRecommended \
	nIterations          0 \
	history              15 \
	knormThreshold       0 \
	energyDiffThreshold  1e-06 \
	nEnergyDiff          2 \
	alphaTstart          1 \
	alphaTmin            1e-10 \
	updateTestStepSize   yes \
	alphaTreduceFactor   0.1 \
	alphaTincreaseFactor 3 \
	nAlphaAdjustMax      3 \
	wolfeEnergy          0.0001 \
	wolfeGradient        0.9 \
	fdTest               no
lcao-params -1 1e-06 0.001
pcm-variant GLSSA13
spintype no-spin
subspace-rotation-factor 1 yes
symmetries automatic
symmetry-threshold 0.0001



---------- Setting up symmetries ----------

Found 48 point-group symmetries of the bravais lattice
Found 48 space-group symmetries with basis
Applied RMS atom displacement 0 bohrs to make symmetries exact.

---------- Initializing the Grid ----------
R = 
[            0      5.13062      5.13062  ]
[      5.13062            0      5.13062  ]
[      5.13062      5.13062            0  ]
unit cell volume = 270.109
G =
[  -0.612323   0.612323   0.612323  ]
[   0.612323  -0.612323   0.612323  ]
[   0.612323   0.612323  -0.612323  ]
Minimum fftbox size, Smin = [  48  48  48  ]
Chosen fftbox size, S = [  48  48  48  ]

---------- Initializing tighter grid for wavefunction operations ----------
R = 
[            0      5.13062      5.13062  ]
[      5.13062            0      5.13062  ]
[      5.13062      5.13062            0  ]
unit cell volume = 270.109
G =
[  -0.612323   0.612323   0.612323  ]
[   0.612323  -0.612323   0.612323  ]
[   0.612323   0.612323  -0.612323  ]
Minimum fftbox size, Smin = [  32  32  32  ]
Chosen fftbox size, S = [  32  32  32  ]

---------- Exchange Correlation functional ----------
Initalized PBE GGA exchange.
Initalized PBE GGA correlation.

---------- Setting up pseudopotentials ----------
Width of ionic core gaussian charges (only for fluid interactions / plotting) set to 0

Reading pseudopotential file '/Users/ali/Desktop/JDFTX/build-withlibxc/pseudopotentials/GBRV/si_pbe.uspp':
  Title: Si.  Created by USPP 7.3.6 on 14-9-2013
  Reference state energy: -4.599342.  4 valence electrons in orbitals:
    |300>  occupation: 2  eigenvalue: -0.397366
    |310>  occupation: 2  eigenvalue: -0.149981
  lMax: 2  lLocal: 3  QijEcut: 5
  6 projectors sampled on a log grid with 627 points:
    l: 0  eig: -0.397364  rCut: 1.6
    l: 0  eig: 1.000000  rCut: 1.6
    l: 1  eig: -0.149982  rCut: 1.6
    l: 1  eig: 1.000000  rCut: 1.6
    l: 2  eig: -0.100000  rCut: 1.7
    l: 2  eig: 0.100000  rCut: 1.7
  Partial core density with radius 1.45
  Transforming core density to a uniform radial grid of dG=0.02 with 2443 points.
  Transforming local potential to a uniform radial grid of dG=0.02 with 2443 points.
  Transforming nonlocal projectors to a uniform radial grid of dG=0.02 with 432 points.
  Transforming density augmentations to a uniform radial grid of dG=0.02 with 2443 points.
  Transforming atomic orbitals to a uniform radial grid of dG=0.02 with 432 points.
  Core radius for overlap checks: 1.70 bohrs.

Initialized 1 species with 2 total atoms.

Folded 1 k-points by 12x12x12 to 1728 k-points.

---------- Setting up k-points, bands, fillings ----------
Reduced to 72 k-points under symmetry. 
Computing the number of bands and number of electrons
Calculating initial fillings.
nElectrons:   8.000000   nBands: 4   nStates: 72

----- Setting up reduced wavefunction bases (one per k-point) -----
average nbasis = 1153.145 , ideal nbasis = 1153.925

---------- Setting up ewald sum ----------
Optimum gaussian width for ewald sums = 2.330237 bohr.
Real space sum over 1331 unit cells with max indices [  5  5  5  ]
Reciprocal space sum over 2197 terms with max indices [  6  6  6  ]

---------- Allocating electronic variables ----------
Initializing wave functions:  linear combination of atomic orbitals
Si pseudo-atom occupations:   s ( 2 )  p ( 2 )
	FillingsUpdate:  mu: +0.264313357  nElectrons: 8.000000
LCAOMinimize: Iter:   0  Etot: -7.8861081544100617  |grad|_K:  4.510e-05  alpha:  1.000e+00
	FillingsUpdate:  mu: +0.264248530  nElectrons: 8.000000
LCAOMinimize: Iter:   1  Etot: -7.8861137810498203  |grad|_K:  1.164e-06  alpha:  9.487e-01  linmin:  9.499e-04  cgtest: -1.214e-03  t[s]:      2.50
	FillingsUpdate:  mu: +0.264249986  nElectrons: 8.000000
LCAOMinimize: Iter:   2  Etot: -7.8861137849842269  |grad|_K:  2.279e-09  alpha:  9.963e-01  linmin: -2.091e-02  cgtest:  8.140e-02  t[s]:      2.94
LCAOMinimize: Encountered beta<0, resetting CG.
	FillingsUpdate:  mu: +0.264249989  nElectrons: 8.000000
LCAOMinimize: Iter:   3  Etot: -7.8861137849842340  |grad|_K:  1.984e-10  alpha:  1.058e+00  linmin:  3.765e-01  cgtest: -9.250e-01  t[s]:      3.38
LCAOMinimize: Converged (|Delta Etot|<1.000000e-06 for 2 iters).


---- Citations for features of the code used in this run ----

   Software package:
      R. Sundararaman, K. Letchworth-Weaver, K.A. Schwarz, D. Gunceler, Y. Ozhabes and T.A. Arias, 'JDFTx: software for joint density-functional theory', SoftwareX 6, 278 (2017)

   gga-PBE exchange-correlation functional:
      J.P. Perdew, K. Burke and M. Ernzerhof, Phys. Rev. Lett. 77, 3865 (1996)

   Pseudopotentials:
      KF Garrity, JW Bennett, KM Rabe and D Vanderbilt, Comput. Mater. Sci. 81, 446 (2014)

   Total energy minimization:
      T.A. Arias, M.C. Payne and J.D. Joannopoulos, Phys. Rev. Lett. 69, 1077 (1992)

This list may not be complete. Please suggest additional citations or
report any other bugs at https://github.com/shankar1729/jdftx/issues

Initialization completed successfully at t[s]:      3.48


-------- Electronic minimization -----------
ElecMinimize: Iter:   0  Etot: -7.886113784984234  |grad|_K:  2.862e-04  alpha:  1.000e+00
ElecMinimize: Iter:   1  Etot: -7.936742449040337  |grad|_K:  9.521e-05  alpha:  1.858e+00  linmin: -7.327e-03  t[s]:      4.51
ElecMinimize: Iter:   2  Etot: -7.942302565378919  |grad|_K:  2.767e-05  alpha:  1.840e+00  linmin: -2.160e-05  t[s]:      5.05
ElecMinimize: Iter:   3  Etot: -7.942783281469444  |grad|_K:  1.279e-05  alpha:  1.890e+00  linmin: -9.638e-06  t[s]:      5.58
ElecMinimize: Iter:   4  Etot: -7.942918969339041  |grad|_K:  8.089e-06  alpha:  2.497e+00  linmin: -5.938e-05  t[s]:      6.07
ElecMinimize: Iter:   5  Etot: -7.942964260764274  |grad|_K:  4.088e-06  alpha:  2.083e+00  linmin: -3.575e-06  t[s]:      6.57
ElecMinimize: Iter:   6  Etot: -7.942974938862942  |grad|_K:  1.984e-06  alpha:  1.923e+00  linmin:  5.784e-06  t[s]:      7.08
ElecMinimize: Iter:   7  Etot: -7.942977294381572  |grad|_K:  9.190e-07  alpha:  1.801e+00  linmin:  1.799e-06  t[s]:      7.57
ElecMinimize: Iter:   8  Etot: -7.942977817574409  |grad|_K:  4.757e-07  alpha:  1.864e+00  linmin: -1.584e-07  t[s]:      8.05
ElecMinimize: Iter:   9  Etot: -7.942977962449570  |grad|_K:  2.587e-07  alpha:  1.927e+00  linmin: -6.695e-07  t[s]:      8.54
ElecMinimize: Iter:  10  Etot: -7.942978004978158  |grad|_K:  1.360e-07  alpha:  1.912e+00  linmin: -3.669e-07  t[s]:      9.02
ElecMinimize: Iter:  11  Etot: -7.942978016755368  |grad|_K:  7.285e-08  alpha:  1.916e+00  linmin: -2.897e-07  t[s]:      9.51
ElecMinimize: Iter:  12  Etot: -7.942978020204666  |grad|_K:  3.958e-08  alpha:  1.956e+00  linmin:  8.136e-06  t[s]:     10.09
ElecMinimize: Iter:  13  Etot: -7.942978021221298  |grad|_K:  2.173e-08  alpha:  1.953e+00  linmin:  2.349e-05  t[s]:     10.60
ElecMinimize: Converged (|Delta Etot|<1.000000e-08 for 2 iters).
Setting wave functions to eigenvectors of Hamiltonian

# Ionic positions in lattice coordinates:
ion Si   0.000000000000000   0.000000000000000   0.000000000000000 0
ion Si   0.250000000000000   0.250000000000000   0.250000000000000 0

# Forces in Lattice coordinates:
force Si   0.000000000000000   0.000000000000000   0.000000000000000 0
force Si   0.000000000000000  -0.000000000000000  -0.000000000000000 0

# Energy components:
   Eewald =       -8.3994546412464199
       EH =        0.5577492690386513
     Eloc =       -2.1028509558399282
      Enl =        1.6298970848138801
      Exc =       -4.3107241487704933
 Exc_core =        1.6535533804097902
       KE =        3.0288519903732221
-------------------------------------
     Etot =       -7.9429780212212977

IonicMinimize: Iter:   0  Etot: -7.942978021221298  |grad|_K:  0.000e+00  t[s]:     10.76
IonicMinimize: Converged (|grad|_K<1.000000e-04).

#--- Lowdin population analysis ---
# oxidation-state Si +0.035 +0.035

End date and time: Tue Apr  6 19:42:17 2021  (Duration: 0-0:00:10.82)
Done!
