
*************** JDFTx 1.6.0  ***************

Start date and time: Tue Apr  6 19:40:16 2021
Executable jdftx with command-line: -i Si.in
Running on hosts (process indices):  dhcp-10-31-192-89.dyn.MIT.EDU (0-3)
Divided in process groups (process indices):  0 (0)  1 (1)  2 (2)  3 (3)
Resource initialization completed at t[s]:      0.00
Run totals: 4 processes, 8 threads, 0 GPUs


Input parsed successfully to the following command list (including defaults):

basis kpoint-dependent
coords-type Lattice
core-overlap-check vector
coulomb-interaction Periodic
davidson-band-ratio 1.1
dump End None
dump-name Si210100.$VAR
elec-cutoff 10 100
elec-eigen-algo Davidson
elec-ex-corr gga-PBE
electronic-minimize  \
	dirUpdateScheme      FletcherReeves \
	linminMethod         DirUpdateRecommended \
	nIterations          100 \
	history              15 \
	knormThreshold       0 \
	energyDiffThreshold  1e-08 \
	nEnergyDiff          2 \
	alphaTstart          1 \
	alphaTmin            1e-10 \
	updateTestStepSize   yes \
	alphaTreduceFactor   0.1 \
	alphaTincreaseFactor 3 \
	nAlphaAdjustMax      3 \
	wolfeEnergy          0.0001 \
	wolfeGradient        0.9 \
	fdTest               no
exchange-regularization WignerSeitzTruncated
fluid None
fluid-ex-corr  lda-PZ
fluid-gummel-loop 10 1.000000e-05
fluid-minimize  \
	dirUpdateScheme      PolakRibiere \
	linminMethod         DirUpdateRecommended \
	nIterations          100 \
	history              15 \
	knormThreshold       0 \
	energyDiffThreshold  0 \
	nEnergyDiff          2 \
	alphaTstart          1 \
	alphaTmin            1e-10 \
	updateTestStepSize   yes \
	alphaTreduceFactor   0.1 \
	alphaTincreaseFactor 3 \
	nAlphaAdjustMax      3 \
	wolfeEnergy          0.0001 \
	wolfeGradient        0.9 \
	fdTest               no
fluid-solvent H2O 55.338 ScalarEOS \
	epsBulk 78.4 \
	pMol 0.92466 \
	epsInf 1.77 \
	Pvap 1.06736e-10 \
	sigmaBulk 4.62e-05 \
	Rvdw 2.61727 \
	Res 1.42 \
	tauNuc 343133 \
	poleEl 15 7 1
forces-output-coords Positions
ion Si   0.000000000000000   0.000000000000000   0.000000000000000 0
ion Si   0.250000000000000   0.250000000000000   0.250000000000000 0
ion-species GBRV/$ID_pbe.uspp
ion-width 0
ionic-minimize  \
	dirUpdateScheme      L-BFGS \
	linminMethod         DirUpdateRecommended \
	nIterations          0 \
	history              15 \
	knormThreshold       0.0001 \
	energyDiffThreshold  1e-06 \
	nEnergyDiff          2 \
	alphaTstart          1 \
	alphaTmin            1e-10 \
	updateTestStepSize   yes \
	alphaTreduceFactor   0.1 \
	alphaTincreaseFactor 3 \
	nAlphaAdjustMax      3 \
	wolfeEnergy          0.0001 \
	wolfeGradient        0.9 \
	fdTest               no
kpoint   0.000000000000   0.000000000000   0.000000000000  1.00000000000000
kpoint-folding 2 2 2 
latt-move-scale 1 1 1
latt-scale 1.88973 1.88973 1.88973 
lattice Face-Centered Cubic 5.43
lattice-minimize  \
	dirUpdateScheme      L-BFGS \
	linminMethod         DirUpdateRecommended \
	nIterations          0 \
	history              15 \
	knormThreshold       0 \
	energyDiffThreshold  1e-06 \
	nEnergyDiff          2 \
	alphaTstart          1 \
	alphaTmin            1e-10 \
	updateTestStepSize   yes \
	alphaTreduceFactor   0.1 \
	alphaTincreaseFactor 3 \
	nAlphaAdjustMax      3 \
	wolfeEnergy          0.0001 \
	wolfeGradient        0.9 \
	fdTest               no
lcao-params -1 1e-06 0.001
pcm-variant GLSSA13
spintype no-spin
subspace-rotation-factor 1 yes
symmetries automatic
symmetry-threshold 0.0001



---------- Setting up symmetries ----------

Found 48 point-group symmetries of the bravais lattice
Found 48 space-group symmetries with basis
Applied RMS atom displacement 0 bohrs to make symmetries exact.

---------- Initializing the Grid ----------
R = 
[            0      5.13062      5.13062  ]
[      5.13062            0      5.13062  ]
[      5.13062      5.13062            0  ]
unit cell volume = 270.109
G =
[  -0.612323   0.612323   0.612323  ]
[   0.612323  -0.612323   0.612323  ]
[   0.612323   0.612323  -0.612323  ]
Minimum fftbox size, Smin = [  36  36  36  ]
Chosen fftbox size, S = [  36  36  36  ]

---------- Initializing tighter grid for wavefunction operations ----------
R = 
[            0      5.13062      5.13062  ]
[      5.13062            0      5.13062  ]
[      5.13062      5.13062            0  ]
unit cell volume = 270.109
G =
[  -0.612323   0.612323   0.612323  ]
[   0.612323  -0.612323   0.612323  ]
[   0.612323   0.612323  -0.612323  ]
Minimum fftbox size, Smin = [  24  24  24  ]
Chosen fftbox size, S = [  24  24  24  ]

---------- Exchange Correlation functional ----------
Initalized PBE GGA exchange.
Initalized PBE GGA correlation.

---------- Setting up pseudopotentials ----------
Width of ionic core gaussian charges (only for fluid interactions / plotting) set to 0

Reading pseudopotential file '/Users/ali/Desktop/JDFTX/build-withlibxc/pseudopotentials/GBRV/si_pbe.uspp':
  Title: Si.  Created by USPP 7.3.6 on 14-9-2013
  Reference state energy: -4.599342.  4 valence electrons in orbitals:
    |300>  occupation: 2  eigenvalue: -0.397366
    |310>  occupation: 2  eigenvalue: -0.149981
  lMax: 2  lLocal: 3  QijEcut: 5
  6 projectors sampled on a log grid with 627 points:
    l: 0  eig: -0.397364  rCut: 1.6
    l: 0  eig: 1.000000  rCut: 1.6
    l: 1  eig: -0.149982  rCut: 1.6
    l: 1  eig: 1.000000  rCut: 1.6
    l: 2  eig: -0.100000  rCut: 1.7
    l: 2  eig: 0.100000  rCut: 1.7
  Partial core density with radius 1.45
  Transforming core density to a uniform radial grid of dG=0.02 with 1833 points.
  Transforming local potential to a uniform radial grid of dG=0.02 with 1833 points.
  Transforming nonlocal projectors to a uniform radial grid of dG=0.02 with 307 points.
  Transforming density augmentations to a uniform radial grid of dG=0.02 with 1833 points.
  Transforming atomic orbitals to a uniform radial grid of dG=0.02 with 307 points.
  Core radius for overlap checks: 1.70 bohrs.

Initialized 1 species with 2 total atoms.

Folded 1 k-points by 2x2x2 to 8 k-points.

---------- Setting up k-points, bands, fillings ----------
Reduced to 3 k-points under symmetry. 
Computing the number of bands and number of electrons
Calculating initial fillings.
nElectrons:   8.000000   nBands: 4   nStates: 3

----- Setting up reduced wavefunction bases (one per k-point) -----
average nbasis = 410.875 , ideal nbasis = 407.974

---------- Setting up ewald sum ----------
Optimum gaussian width for ewald sums = 2.330237 bohr.
Real space sum over 1331 unit cells with max indices [  5  5  5  ]
Reciprocal space sum over 2197 terms with max indices [  6  6  6  ]

---------- Allocating electronic variables ----------
Initializing wave functions:  linear combination of atomic orbitals
Si pseudo-atom occupations:   s ( 2 )  p ( 2 )
	FillingsUpdate:  mu: +0.285442975  nElectrons: 8.000000
LCAOMinimize: Iter:   0  Etot: -7.7918078309557099  |grad|_K:  1.009e-03  alpha:  1.000e+00
	FillingsUpdate:  mu: +0.284920979  nElectrons: 8.000000
LCAOMinimize: Iter:   1  Etot: -7.7919242678490308  |grad|_K:  5.664e-06  alpha:  9.419e-01  linmin: -5.248e-02  cgtest:  8.886e-02  t[s]:      1.24
LCAOMinimize: Encountered beta<0, resetting CG.
	FillingsUpdate:  mu: +0.284921853  nElectrons: 8.000000
LCAOMinimize: Iter:   2  Etot: -7.7919242717684511  |grad|_K:  1.485e-08  alpha:  1.006e+00  linmin: -1.609e-02  cgtest:  5.374e-02  t[s]:      1.32
LCAOMinimize: Encountered beta<0, resetting CG.
	FillingsUpdate:  mu: +0.284921850  nElectrons: 8.000000
LCAOMinimize: Iter:   3  Etot: -7.7919242717684716  |grad|_K:  1.601e-09  alpha:  1.090e+00  linmin:  2.795e-01  cgtest: -9.624e-01  t[s]:      1.40
LCAOMinimize: Converged (|Delta Etot|<1.000000e-06 for 2 iters).


---- Citations for features of the code used in this run ----

   Software package:
      R. Sundararaman, K. Letchworth-Weaver, K.A. Schwarz, D. Gunceler, Y. Ozhabes and T.A. Arias, 'JDFTx: software for joint density-functional theory', SoftwareX 6, 278 (2017)

   gga-PBE exchange-correlation functional:
      J.P. Perdew, K. Burke and M. Ernzerhof, Phys. Rev. Lett. 77, 3865 (1996)

   Pseudopotentials:
      KF Garrity, JW Bennett, KM Rabe and D Vanderbilt, Comput. Mater. Sci. 81, 446 (2014)

   Total energy minimization:
      T.A. Arias, M.C. Payne and J.D. Joannopoulos, Phys. Rev. Lett. 69, 1077 (1992)

This list may not be complete. Please suggest additional citations or
report any other bugs at https://github.com/shankar1729/jdftx/issues

Initialization completed successfully at t[s]:      1.40


-------- Electronic minimization -----------
ElecMinimize: Iter:   0  Etot: -7.791924271768472  |grad|_K:  2.349e-03  alpha:  1.000e+00
ElecMinimize: Iter:   1  Etot: -7.842614445248387  |grad|_K:  8.027e-04  alpha:  1.863e+00  linmin: -8.820e-04  t[s]:      1.51
ElecMinimize: Iter:   2  Etot: -7.848171471277096  |grad|_K:  2.556e-04  alpha:  1.748e+00  linmin: -1.019e-04  t[s]:      1.56
ElecMinimize: Iter:   3  Etot: -7.848693252625877  |grad|_K:  9.793e-05  alpha:  1.620e+00  linmin: -5.138e-05  t[s]:      1.62
ElecMinimize: Iter:   4  Etot: -7.848772206620312  |grad|_K:  4.995e-05  alpha:  1.669e+00  linmin: -5.996e-05  t[s]:      1.67
ElecMinimize: Iter:   5  Etot: -7.848796078321283  |grad|_K:  2.679e-05  alpha:  1.940e+00  linmin: -6.760e-06  t[s]:      1.73
ElecMinimize: Iter:   6  Etot: -7.848802946575116  |grad|_K:  1.347e-05  alpha:  1.940e+00  linmin:  2.597e-06  t[s]:      1.79
ElecMinimize: Iter:   7  Etot: -7.848804618156728  |grad|_K:  6.710e-06  alpha:  1.869e+00  linmin:  1.716e-06  t[s]:      1.84
ElecMinimize: Iter:   8  Etot: -7.848805049388109  |grad|_K:  3.616e-06  alpha:  1.942e+00  linmin:  3.091e-06  t[s]:      1.89
ElecMinimize: Iter:   9  Etot: -7.848805189470383  |grad|_K:  2.656e-06  alpha:  2.172e+00  linmin:  1.044e-06  t[s]:      1.95
ElecMinimize: Iter:  10  Etot: -7.848805279589491  |grad|_K:  1.868e-06  alpha:  2.591e+00  linmin: -1.060e-06  t[s]:      2.01
ElecMinimize: Iter:  11  Etot: -7.848805315206187  |grad|_K:  9.486e-07  alpha:  2.071e+00  linmin: -2.299e-07  t[s]:      2.06
ElecMinimize: Iter:  12  Etot: -7.848805323408170  |grad|_K:  4.556e-07  alpha:  1.848e+00  linmin: -2.606e-07  t[s]:      2.12
ElecMinimize: Iter:  13  Etot: -7.848805325412187  |grad|_K:  2.752e-07  alpha:  1.957e+00  linmin: -4.914e-06  t[s]:      2.18
ElecMinimize: Converged (|Delta Etot|<1.000000e-08 for 2 iters).
Setting wave functions to eigenvectors of Hamiltonian

# Ionic positions in lattice coordinates:
ion Si   0.000000000000000   0.000000000000000   0.000000000000000 0
ion Si   0.250000000000000   0.250000000000000   0.250000000000000 0

# Forces in Lattice coordinates:
force Si   0.000000000000000   0.000000000000000   0.000000000000000 0
force Si  -0.000000000000000  -0.000000000000000  -0.000000000000000 0

# Energy components:
   Eewald =       -8.3994546412464199
       EH =        0.6421547452514484
     Eloc =       -2.2401832591700801
      Enl =        1.6174574664975416
      Exc =       -4.3516517105342558
 Exc_core =        1.6535544468665375
       KE =        3.2293176269230415
-------------------------------------
     Etot =       -7.8488053254121866

IonicMinimize: Iter:   0  Etot: -7.848805325412187  |grad|_K:  0.000e+00  t[s]:      2.21
IonicMinimize: Converged (|grad|_K<1.000000e-04).

#--- Lowdin population analysis ---
# oxidation-state Si +0.041 +0.041

End date and time: Tue Apr  6 19:40:18 2021  (Duration: 0-0:00:02.21)
Done!
