
*************** JDFTx 1.6.0  ***************

Start date and time: Tue Apr  6 19:40:25 2021
Executable jdftx with command-line: -i Si.in
Running on hosts (process indices):  dhcp-10-31-192-89.dyn.MIT.EDU (0-3)
Divided in process groups (process indices):  0 (0)  1 (1)  2 (2)  3 (3)
Resource initialization completed at t[s]:      0.00
Run totals: 4 processes, 8 threads, 0 GPUs


Input parsed successfully to the following command list (including defaults):

basis kpoint-dependent
coords-type Lattice
core-overlap-check vector
coulomb-interaction Periodic
davidson-band-ratio 1.1
dump End None
dump-name Si220100.$VAR
elec-cutoff 20 100
elec-eigen-algo Davidson
elec-ex-corr gga-PBE
electronic-minimize  \
	dirUpdateScheme      FletcherReeves \
	linminMethod         DirUpdateRecommended \
	nIterations          100 \
	history              15 \
	knormThreshold       0 \
	energyDiffThreshold  1e-08 \
	nEnergyDiff          2 \
	alphaTstart          1 \
	alphaTmin            1e-10 \
	updateTestStepSize   yes \
	alphaTreduceFactor   0.1 \
	alphaTincreaseFactor 3 \
	nAlphaAdjustMax      3 \
	wolfeEnergy          0.0001 \
	wolfeGradient        0.9 \
	fdTest               no
exchange-regularization WignerSeitzTruncated
fluid None
fluid-ex-corr  lda-PZ
fluid-gummel-loop 10 1.000000e-05
fluid-minimize  \
	dirUpdateScheme      PolakRibiere \
	linminMethod         DirUpdateRecommended \
	nIterations          100 \
	history              15 \
	knormThreshold       0 \
	energyDiffThreshold  0 \
	nEnergyDiff          2 \
	alphaTstart          1 \
	alphaTmin            1e-10 \
	updateTestStepSize   yes \
	alphaTreduceFactor   0.1 \
	alphaTincreaseFactor 3 \
	nAlphaAdjustMax      3 \
	wolfeEnergy          0.0001 \
	wolfeGradient        0.9 \
	fdTest               no
fluid-solvent H2O 55.338 ScalarEOS \
	epsBulk 78.4 \
	pMol 0.92466 \
	epsInf 1.77 \
	Pvap 1.06736e-10 \
	sigmaBulk 4.62e-05 \
	Rvdw 2.61727 \
	Res 1.42 \
	tauNuc 343133 \
	poleEl 15 7 1
forces-output-coords Positions
ion Si   0.000000000000000   0.000000000000000   0.000000000000000 0
ion Si   0.250000000000000   0.250000000000000   0.250000000000000 0
ion-species GBRV/$ID_pbe.uspp
ion-width 0
ionic-minimize  \
	dirUpdateScheme      L-BFGS \
	linminMethod         DirUpdateRecommended \
	nIterations          0 \
	history              15 \
	knormThreshold       0.0001 \
	energyDiffThreshold  1e-06 \
	nEnergyDiff          2 \
	alphaTstart          1 \
	alphaTmin            1e-10 \
	updateTestStepSize   yes \
	alphaTreduceFactor   0.1 \
	alphaTincreaseFactor 3 \
	nAlphaAdjustMax      3 \
	wolfeEnergy          0.0001 \
	wolfeGradient        0.9 \
	fdTest               no
kpoint   0.000000000000   0.000000000000   0.000000000000  1.00000000000000
kpoint-folding 2 2 2 
latt-move-scale 1 1 1
latt-scale 1.88973 1.88973 1.88973 
lattice Face-Centered Cubic 5.43
lattice-minimize  \
	dirUpdateScheme      L-BFGS \
	linminMethod         DirUpdateRecommended \
	nIterations          0 \
	history              15 \
	knormThreshold       0 \
	energyDiffThreshold  1e-06 \
	nEnergyDiff          2 \
	alphaTstart          1 \
	alphaTmin            1e-10 \
	updateTestStepSize   yes \
	alphaTreduceFactor   0.1 \
	alphaTincreaseFactor 3 \
	nAlphaAdjustMax      3 \
	wolfeEnergy          0.0001 \
	wolfeGradient        0.9 \
	fdTest               no
lcao-params -1 1e-06 0.001
pcm-variant GLSSA13
spintype no-spin
subspace-rotation-factor 1 yes
symmetries automatic
symmetry-threshold 0.0001



---------- Setting up symmetries ----------

Found 48 point-group symmetries of the bravais lattice
Found 48 space-group symmetries with basis
Applied RMS atom displacement 0 bohrs to make symmetries exact.

---------- Initializing the Grid ----------
R = 
[            0      5.13062      5.13062  ]
[      5.13062            0      5.13062  ]
[      5.13062      5.13062            0  ]
unit cell volume = 270.109
G =
[  -0.612323   0.612323   0.612323  ]
[   0.612323  -0.612323   0.612323  ]
[   0.612323   0.612323  -0.612323  ]
Minimum fftbox size, Smin = [  36  36  36  ]
Chosen fftbox size, S = [  36  36  36  ]

---------- Initializing tighter grid for wavefunction operations ----------
R = 
[            0      5.13062      5.13062  ]
[      5.13062            0      5.13062  ]
[      5.13062      5.13062            0  ]
unit cell volume = 270.109
G =
[  -0.612323   0.612323   0.612323  ]
[   0.612323  -0.612323   0.612323  ]
[   0.612323   0.612323  -0.612323  ]
Minimum fftbox size, Smin = [  32  32  32  ]
Chosen fftbox size, S = [  32  32  32  ]

---------- Exchange Correlation functional ----------
Initalized PBE GGA exchange.
Initalized PBE GGA correlation.

---------- Setting up pseudopotentials ----------
Width of ionic core gaussian charges (only for fluid interactions / plotting) set to 0

Reading pseudopotential file '/Users/ali/Desktop/JDFTX/build-withlibxc/pseudopotentials/GBRV/si_pbe.uspp':
  Title: Si.  Created by USPP 7.3.6 on 14-9-2013
  Reference state energy: -4.599342.  4 valence electrons in orbitals:
    |300>  occupation: 2  eigenvalue: -0.397366
    |310>  occupation: 2  eigenvalue: -0.149981
  lMax: 2  lLocal: 3  QijEcut: 5
  6 projectors sampled on a log grid with 627 points:
    l: 0  eig: -0.397364  rCut: 1.6
    l: 0  eig: 1.000000  rCut: 1.6
    l: 1  eig: -0.149982  rCut: 1.6
    l: 1  eig: 1.000000  rCut: 1.6
    l: 2  eig: -0.100000  rCut: 1.7
    l: 2  eig: 0.100000  rCut: 1.7
  Partial core density with radius 1.45
  Transforming core density to a uniform radial grid of dG=0.02 with 1833 points.
  Transforming local potential to a uniform radial grid of dG=0.02 with 1833 points.
  Transforming nonlocal projectors to a uniform radial grid of dG=0.02 with 432 points.
  Transforming density augmentations to a uniform radial grid of dG=0.02 with 1833 points.
  Transforming atomic orbitals to a uniform radial grid of dG=0.02 with 432 points.
  Core radius for overlap checks: 1.70 bohrs.

Initialized 1 species with 2 total atoms.

Folded 1 k-points by 2x2x2 to 8 k-points.

---------- Setting up k-points, bands, fillings ----------
Reduced to 3 k-points under symmetry. 
Computing the number of bands and number of electrons
Calculating initial fillings.
nElectrons:   8.000000   nBands: 4   nStates: 3

----- Setting up reduced wavefunction bases (one per k-point) -----
average nbasis = 1157.125 , ideal nbasis = 1153.925

---------- Setting up ewald sum ----------
Optimum gaussian width for ewald sums = 2.330237 bohr.
Real space sum over 1331 unit cells with max indices [  5  5  5  ]
Reciprocal space sum over 2197 terms with max indices [  6  6  6  ]

---------- Allocating electronic variables ----------
Initializing wave functions:  linear combination of atomic orbitals
Si pseudo-atom occupations:   s ( 2 )  p ( 2 )
	FillingsUpdate:  mu: +0.285108111  nElectrons: 8.000000
LCAOMinimize: Iter:   0  Etot: -7.7901920879132476  |grad|_K:  8.759e-04  alpha:  1.000e+00
	FillingsUpdate:  mu: +0.284727619  nElectrons: 8.000000
LCAOMinimize: Iter:   1  Etot: -7.7902802838641660  |grad|_K:  3.757e-06  alpha:  9.463e-01  linmin: -2.332e-01  cgtest:  3.438e-01  t[s]:      1.17
LCAOMinimize: Encountered beta<0, resetting CG.
	FillingsUpdate:  mu: +0.284727691  nElectrons: 8.000000
LCAOMinimize: Iter:   2  Etot: -7.7902802855791382  |grad|_K:  5.527e-08  alpha:  9.999e-01  linmin: -1.365e-03  cgtest:  1.027e-02  t[s]:      1.25
	FillingsUpdate:  mu: +0.284727717  nElectrons: 8.000000
LCAOMinimize: Iter:   3  Etot: -7.7902802855794926  |grad|_K:  6.877e-10  alpha:  9.453e-01  linmin: -1.598e-01  cgtest:  4.991e-01  t[s]:      1.34
LCAOMinimize: Encountered beta<0, resetting CG.
LCAOMinimize: Converged (|Delta Etot|<1.000000e-06 for 2 iters).


---- Citations for features of the code used in this run ----

   Software package:
      R. Sundararaman, K. Letchworth-Weaver, K.A. Schwarz, D. Gunceler, Y. Ozhabes and T.A. Arias, 'JDFTx: software for joint density-functional theory', SoftwareX 6, 278 (2017)

   gga-PBE exchange-correlation functional:
      J.P. Perdew, K. Burke and M. Ernzerhof, Phys. Rev. Lett. 77, 3865 (1996)

   Pseudopotentials:
      KF Garrity, JW Bennett, KM Rabe and D Vanderbilt, Comput. Mater. Sci. 81, 446 (2014)

   Total energy minimization:
      T.A. Arias, M.C. Payne and J.D. Joannopoulos, Phys. Rev. Lett. 69, 1077 (1992)

This list may not be complete. Please suggest additional citations or
report any other bugs at https://github.com/shankar1729/jdftx/issues

Initialization completed successfully at t[s]:      1.34


-------- Electronic minimization -----------
ElecMinimize: Iter:   0  Etot: -7.790280285579493  |grad|_K:  1.436e-03  alpha:  1.000e+00
ElecMinimize: Iter:   1  Etot: -7.842796777717881  |grad|_K:  4.844e-04  alpha:  1.842e+00  linmin: -2.220e-03  t[s]:      1.47
ElecMinimize: Iter:   2  Etot: -7.848513307587652  |grad|_K:  1.542e-04  alpha:  1.759e+00  linmin: -1.027e-04  t[s]:      1.54
ElecMinimize: Iter:   3  Etot: -7.849056817895756  |grad|_K:  5.946e-05  alpha:  1.651e+00  linmin: -6.140e-05  t[s]:      1.60
ElecMinimize: Iter:   4  Etot: -7.849144462765391  |grad|_K:  3.381e-05  alpha:  1.792e+00  linmin: -4.710e-05  t[s]:      1.67
ElecMinimize: Iter:   5  Etot: -7.849178098230613  |grad|_K:  2.042e-05  alpha:  2.127e+00  linmin: -1.149e-05  t[s]:      1.73
ElecMinimize: Iter:   6  Etot: -7.849189904039761  |grad|_K:  1.087e-05  alpha:  2.045e+00  linmin:  3.123e-06  t[s]:      1.80
ElecMinimize: Iter:   7  Etot: -7.849192901174070  |grad|_K:  4.920e-06  alpha:  1.833e+00  linmin:  4.429e-06  t[s]:      1.87
ElecMinimize: Iter:   8  Etot: -7.849193480130641  |grad|_K:  2.020e-06  alpha:  1.728e+00  linmin:  2.031e-06  t[s]:      1.93
ElecMinimize: Iter:   9  Etot: -7.849193576902615  |grad|_K:  1.083e-06  alpha:  1.715e+00  linmin:  3.083e-08  t[s]:      2.00
ElecMinimize: Iter:  10  Etot: -7.849193612963932  |grad|_K:  7.097e-07  alpha:  2.221e+00  linmin: -8.984e-07  t[s]:      2.07
ElecMinimize: Iter:  11  Etot: -7.849193628372658  |grad|_K:  4.304e-07  alpha:  2.211e+00  linmin: -6.184e-07  t[s]:      2.13
ElecMinimize: Iter:  12  Etot: -7.849193633746843  |grad|_K:  2.451e-07  alpha:  2.097e+00  linmin:  2.342e-06  t[s]:      2.20
ElecMinimize: Iter:  13  Etot: -7.849193635541716  |grad|_K:  1.619e-07  alpha:  2.159e+00  linmin: -5.171e-06  t[s]:      2.27
ElecMinimize: Converged (|Delta Etot|<1.000000e-08 for 2 iters).
Setting wave functions to eigenvectors of Hamiltonian

# Ionic positions in lattice coordinates:
ion Si   0.000000000000000   0.000000000000000   0.000000000000000 0
ion Si   0.250000000000000   0.250000000000000   0.250000000000000 0

# Forces in Lattice coordinates:
force Si  -0.000000000000000  -0.000000000000000   0.000000000000000 0
force Si  -0.000000000000000  -0.000000000000000   0.000000000000000 0

# Energy components:
   Eewald =       -8.3994546412464199
       EH =        0.6423082525618862
     Eloc =       -2.2419359831818872
      Enl =        1.6149957855235537
      Exc =       -4.3518222850768069
 Exc_core =        1.6535544468665375
       KE =        3.2331607890114205
-------------------------------------
     Etot =       -7.8491936355417158

IonicMinimize: Iter:   0  Etot: -7.849193635541716  |grad|_K:  0.000e+00  t[s]:      2.31
IonicMinimize: Converged (|grad|_K<1.000000e-04).

#--- Lowdin population analysis ---
# oxidation-state Si +0.041 +0.041

End date and time: Tue Apr  6 19:40:27 2021  (Duration: 0-0:00:02.32)
Done!
