
*************** JDFTx 1.6.0  ***************

Start date and time: Tue Apr  6 19:40:46 2021
Executable jdftx with command-line: -i Si.in
Running on hosts (process indices):  dhcp-10-31-192-89.dyn.MIT.EDU (0-3)
Divided in process groups (process indices):  0 (0)  1 (1)  2 (2)  3 (3)
Resource initialization completed at t[s]:      0.00
Run totals: 4 processes, 8 threads, 0 GPUs


Input parsed successfully to the following command list (including defaults):

basis kpoint-dependent
coords-type Lattice
core-overlap-check vector
coulomb-interaction Periodic
davidson-band-ratio 1.1
dump End None
dump-name Si420100.$VAR
elec-cutoff 20 100
elec-eigen-algo Davidson
elec-ex-corr gga-PBE
electronic-minimize  \
	dirUpdateScheme      FletcherReeves \
	linminMethod         DirUpdateRecommended \
	nIterations          100 \
	history              15 \
	knormThreshold       0 \
	energyDiffThreshold  1e-08 \
	nEnergyDiff          2 \
	alphaTstart          1 \
	alphaTmin            1e-10 \
	updateTestStepSize   yes \
	alphaTreduceFactor   0.1 \
	alphaTincreaseFactor 3 \
	nAlphaAdjustMax      3 \
	wolfeEnergy          0.0001 \
	wolfeGradient        0.9 \
	fdTest               no
exchange-regularization WignerSeitzTruncated
fluid None
fluid-ex-corr  lda-PZ
fluid-gummel-loop 10 1.000000e-05
fluid-minimize  \
	dirUpdateScheme      PolakRibiere \
	linminMethod         DirUpdateRecommended \
	nIterations          100 \
	history              15 \
	knormThreshold       0 \
	energyDiffThreshold  0 \
	nEnergyDiff          2 \
	alphaTstart          1 \
	alphaTmin            1e-10 \
	updateTestStepSize   yes \
	alphaTreduceFactor   0.1 \
	alphaTincreaseFactor 3 \
	nAlphaAdjustMax      3 \
	wolfeEnergy          0.0001 \
	wolfeGradient        0.9 \
	fdTest               no
fluid-solvent H2O 55.338 ScalarEOS \
	epsBulk 78.4 \
	pMol 0.92466 \
	epsInf 1.77 \
	Pvap 1.06736e-10 \
	sigmaBulk 4.62e-05 \
	Rvdw 2.61727 \
	Res 1.42 \
	tauNuc 343133 \
	poleEl 15 7 1
forces-output-coords Positions
ion Si   0.000000000000000   0.000000000000000   0.000000000000000 0
ion Si   0.250000000000000   0.250000000000000   0.250000000000000 0
ion-species GBRV/$ID_pbe.uspp
ion-width 0
ionic-minimize  \
	dirUpdateScheme      L-BFGS \
	linminMethod         DirUpdateRecommended \
	nIterations          0 \
	history              15 \
	knormThreshold       0.0001 \
	energyDiffThreshold  1e-06 \
	nEnergyDiff          2 \
	alphaTstart          1 \
	alphaTmin            1e-10 \
	updateTestStepSize   yes \
	alphaTreduceFactor   0.1 \
	alphaTincreaseFactor 3 \
	nAlphaAdjustMax      3 \
	wolfeEnergy          0.0001 \
	wolfeGradient        0.9 \
	fdTest               no
kpoint   0.000000000000   0.000000000000   0.000000000000  1.00000000000000
kpoint-folding 4 4 4 
latt-move-scale 1 1 1
latt-scale 1.88973 1.88973 1.88973 
lattice Face-Centered Cubic 5.43
lattice-minimize  \
	dirUpdateScheme      L-BFGS \
	linminMethod         DirUpdateRecommended \
	nIterations          0 \
	history              15 \
	knormThreshold       0 \
	energyDiffThreshold  1e-06 \
	nEnergyDiff          2 \
	alphaTstart          1 \
	alphaTmin            1e-10 \
	updateTestStepSize   yes \
	alphaTreduceFactor   0.1 \
	alphaTincreaseFactor 3 \
	nAlphaAdjustMax      3 \
	wolfeEnergy          0.0001 \
	wolfeGradient        0.9 \
	fdTest               no
lcao-params -1 1e-06 0.001
pcm-variant GLSSA13
spintype no-spin
subspace-rotation-factor 1 yes
symmetries automatic
symmetry-threshold 0.0001



---------- Setting up symmetries ----------

Found 48 point-group symmetries of the bravais lattice
Found 48 space-group symmetries with basis
Applied RMS atom displacement 0 bohrs to make symmetries exact.

---------- Initializing the Grid ----------
R = 
[            0      5.13062      5.13062  ]
[      5.13062            0      5.13062  ]
[      5.13062      5.13062            0  ]
unit cell volume = 270.109
G =
[  -0.612323   0.612323   0.612323  ]
[   0.612323  -0.612323   0.612323  ]
[   0.612323   0.612323  -0.612323  ]
Minimum fftbox size, Smin = [  36  36  36  ]
Chosen fftbox size, S = [  36  36  36  ]

---------- Initializing tighter grid for wavefunction operations ----------
R = 
[            0      5.13062      5.13062  ]
[      5.13062            0      5.13062  ]
[      5.13062      5.13062            0  ]
unit cell volume = 270.109
G =
[  -0.612323   0.612323   0.612323  ]
[   0.612323  -0.612323   0.612323  ]
[   0.612323   0.612323  -0.612323  ]
Minimum fftbox size, Smin = [  32  32  32  ]
Chosen fftbox size, S = [  32  32  32  ]

---------- Exchange Correlation functional ----------
Initalized PBE GGA exchange.
Initalized PBE GGA correlation.

---------- Setting up pseudopotentials ----------
Width of ionic core gaussian charges (only for fluid interactions / plotting) set to 0

Reading pseudopotential file '/Users/ali/Desktop/JDFTX/build-withlibxc/pseudopotentials/GBRV/si_pbe.uspp':
  Title: Si.  Created by USPP 7.3.6 on 14-9-2013
  Reference state energy: -4.599342.  4 valence electrons in orbitals:
    |300>  occupation: 2  eigenvalue: -0.397366
    |310>  occupation: 2  eigenvalue: -0.149981
  lMax: 2  lLocal: 3  QijEcut: 5
  6 projectors sampled on a log grid with 627 points:
    l: 0  eig: -0.397364  rCut: 1.6
    l: 0  eig: 1.000000  rCut: 1.6
    l: 1  eig: -0.149982  rCut: 1.6
    l: 1  eig: 1.000000  rCut: 1.6
    l: 2  eig: -0.100000  rCut: 1.7
    l: 2  eig: 0.100000  rCut: 1.7
  Partial core density with radius 1.45
  Transforming core density to a uniform radial grid of dG=0.02 with 1833 points.
  Transforming local potential to a uniform radial grid of dG=0.02 with 1833 points.
  Transforming nonlocal projectors to a uniform radial grid of dG=0.02 with 432 points.
  Transforming density augmentations to a uniform radial grid of dG=0.02 with 1833 points.
  Transforming atomic orbitals to a uniform radial grid of dG=0.02 with 432 points.
  Core radius for overlap checks: 1.70 bohrs.

Initialized 1 species with 2 total atoms.

Folded 1 k-points by 4x4x4 to 64 k-points.

---------- Setting up k-points, bands, fillings ----------
Reduced to 8 k-points under symmetry. 
Computing the number of bands and number of electrons
Calculating initial fillings.
nElectrons:   8.000000   nBands: 4   nStates: 8

----- Setting up reduced wavefunction bases (one per k-point) -----
average nbasis = 1154.516 , ideal nbasis = 1153.925

---------- Setting up ewald sum ----------
Optimum gaussian width for ewald sums = 2.330237 bohr.
Real space sum over 1331 unit cells with max indices [  5  5  5  ]
Reciprocal space sum over 2197 terms with max indices [  6  6  6  ]

---------- Allocating electronic variables ----------
Initializing wave functions:  linear combination of atomic orbitals
Si pseudo-atom occupations:   s ( 2 )  p ( 2 )
	FillingsUpdate:  mu: +0.269780824  nElectrons: 8.000000
LCAOMinimize: Iter:   0  Etot: -7.8803356972716454  |grad|_K:  1.766e-04  alpha:  1.000e+00
	FillingsUpdate:  mu: +0.269686486  nElectrons: 8.000000
LCAOMinimize: Iter:   1  Etot: -7.8803452997359384  |grad|_K:  4.010e-06  alpha:  9.506e-01  linmin:  6.658e-05  cgtest:  1.777e-03  t[s]:      1.34
	FillingsUpdate:  mu: +0.269688159  nElectrons: 8.000000
LCAOMinimize: Iter:   2  Etot: -7.8803453049399241  |grad|_K:  1.035e-08  alpha:  9.990e-01  linmin: -1.657e-02  cgtest:  5.083e-02  t[s]:      1.48
LCAOMinimize: Encountered beta<0, resetting CG.
	FillingsUpdate:  mu: +0.269688155  nElectrons: 8.000000
LCAOMinimize: Iter:   3  Etot: -7.8803453049399668  |grad|_K:  1.873e-09  alpha:  1.148e+00  linmin:  3.822e-01  cgtest: -9.786e-01  t[s]:      1.60
LCAOMinimize: Converged (|Delta Etot|<1.000000e-06 for 2 iters).


---- Citations for features of the code used in this run ----

   Software package:
      R. Sundararaman, K. Letchworth-Weaver, K.A. Schwarz, D. Gunceler, Y. Ozhabes and T.A. Arias, 'JDFTx: software for joint density-functional theory', SoftwareX 6, 278 (2017)

   gga-PBE exchange-correlation functional:
      J.P. Perdew, K. Burke and M. Ernzerhof, Phys. Rev. Lett. 77, 3865 (1996)

   Pseudopotentials:
      KF Garrity, JW Bennett, KM Rabe and D Vanderbilt, Comput. Mater. Sci. 81, 446 (2014)

   Total energy minimization:
      T.A. Arias, M.C. Payne and J.D. Joannopoulos, Phys. Rev. Lett. 69, 1077 (1992)

This list may not be complete. Please suggest additional citations or
report any other bugs at https://github.com/shankar1729/jdftx/issues

Initialization completed successfully at t[s]:      1.61


-------- Electronic minimization -----------
ElecMinimize: Iter:   0  Etot: -7.880345304939970  |grad|_K:  8.538e-04  alpha:  1.000e+00
ElecMinimize: Iter:   1  Etot: -7.930126097021043  |grad|_K:  2.825e-04  alpha:  1.846e+00  linmin: -6.229e-03  t[s]:      1.81
ElecMinimize: Iter:   2  Etot: -7.935522215410613  |grad|_K:  8.073e-05  alpha:  1.823e+00  linmin: -8.301e-05  t[s]:      1.91
ElecMinimize: Iter:   3  Etot: -7.935948639146538  |grad|_K:  3.411e-05  alpha:  1.770e+00  linmin: -1.548e-05  t[s]:      2.00
ElecMinimize: Iter:   4  Etot: -7.936043893919111  |grad|_K:  2.088e-05  alpha:  2.215e+00  linmin: -4.401e-05  t[s]:      2.10
ElecMinimize: Iter:   5  Etot: -7.936077557782273  |grad|_K:  1.169e-05  alpha:  2.090e+00  linmin: -9.259e-06  t[s]:      2.19
ElecMinimize: Iter:   6  Etot: -7.936087170523282  |grad|_K:  6.412e-06  alpha:  1.903e+00  linmin:  2.646e-06  t[s]:      2.28
ElecMinimize: Iter:   7  Etot: -7.936089838166691  |grad|_K:  2.996e-06  alpha:  1.756e+00  linmin:  2.943e-06  t[s]:      2.37
ElecMinimize: Iter:   8  Etot: -7.936090447788105  |grad|_K:  1.422e-06  alpha:  1.839e+00  linmin:  6.485e-07  t[s]:      2.46
ElecMinimize: Iter:   9  Etot: -7.936090590987710  |grad|_K:  7.409e-07  alpha:  1.916e+00  linmin: -2.289e-07  t[s]:      2.59
ElecMinimize: Iter:  10  Etot: -7.936090629464857  |grad|_K:  4.065e-07  alpha:  1.897e+00  linmin: -2.444e-07  t[s]:      2.73
ElecMinimize: Iter:  11  Etot: -7.936090641915315  |grad|_K:  2.446e-07  alpha:  2.039e+00  linmin:  1.272e-07  t[s]:      2.83
ElecMinimize: Iter:  12  Etot: -7.936090646745088  |grad|_K:  1.477e-07  alpha:  2.185e+00  linmin: -3.833e-08  t[s]:      2.93
ElecMinimize: Iter:  13  Etot: -7.936090648478381  |grad|_K:  8.280e-08  alpha:  2.149e+00  linmin: -2.188e-06  t[s]:      3.02
ElecMinimize: Converged (|Delta Etot|<1.000000e-08 for 2 iters).
Setting wave functions to eigenvectors of Hamiltonian

# Ionic positions in lattice coordinates:
ion Si   0.000000000000000   0.000000000000000   0.000000000000000 0
ion Si   0.250000000000000   0.250000000000000   0.250000000000000 0

# Forces in Lattice coordinates:
force Si   0.000000000000000   0.000000000000000   0.000000000000000 0
force Si   0.000000000000000  -0.000000000000000   0.000000000000000 0

# Energy components:
   Eewald =       -8.3994546412464199
       EH =        0.5698047983787445
     Eloc =       -2.1225130130377599
      Enl =        1.6273787146868064
      Exc =       -4.3164443247465130
 Exc_core =        1.6535544468665375
       KE =        3.0515833706202224
-------------------------------------
     Etot =       -7.9360906484783813

IonicMinimize: Iter:   0  Etot: -7.936090648478381  |grad|_K:  0.000e+00  t[s]:      3.07
IonicMinimize: Converged (|grad|_K<1.000000e-04).

#--- Lowdin population analysis ---
# oxidation-state Si +0.035 +0.035

End date and time: Tue Apr  6 19:40:49 2021  (Duration: 0-0:00:03.08)
Done!
