
*************** JDFTx 1.6.0  ***************

Start date and time: Tue Apr  6 19:40:58 2021
Executable jdftx with command-line: -i Si.in
Running on hosts (process indices):  dhcp-10-31-192-89.dyn.MIT.EDU (0-3)
Divided in process groups (process indices):  0 (0)  1 (1)  2 (2)  3 (3)
Resource initialization completed at t[s]:      0.00
Run totals: 4 processes, 8 threads, 0 GPUs


Input parsed successfully to the following command list (including defaults):

basis kpoint-dependent
coords-type Lattice
core-overlap-check vector
coulomb-interaction Periodic
davidson-band-ratio 1.1
dump End None
dump-name Si610100.$VAR
elec-cutoff 10 100
elec-eigen-algo Davidson
elec-ex-corr gga-PBE
electronic-minimize  \
	dirUpdateScheme      FletcherReeves \
	linminMethod         DirUpdateRecommended \
	nIterations          100 \
	history              15 \
	knormThreshold       0 \
	energyDiffThreshold  1e-08 \
	nEnergyDiff          2 \
	alphaTstart          1 \
	alphaTmin            1e-10 \
	updateTestStepSize   yes \
	alphaTreduceFactor   0.1 \
	alphaTincreaseFactor 3 \
	nAlphaAdjustMax      3 \
	wolfeEnergy          0.0001 \
	wolfeGradient        0.9 \
	fdTest               no
exchange-regularization WignerSeitzTruncated
fluid None
fluid-ex-corr  lda-PZ
fluid-gummel-loop 10 1.000000e-05
fluid-minimize  \
	dirUpdateScheme      PolakRibiere \
	linminMethod         DirUpdateRecommended \
	nIterations          100 \
	history              15 \
	knormThreshold       0 \
	energyDiffThreshold  0 \
	nEnergyDiff          2 \
	alphaTstart          1 \
	alphaTmin            1e-10 \
	updateTestStepSize   yes \
	alphaTreduceFactor   0.1 \
	alphaTincreaseFactor 3 \
	nAlphaAdjustMax      3 \
	wolfeEnergy          0.0001 \
	wolfeGradient        0.9 \
	fdTest               no
fluid-solvent H2O 55.338 ScalarEOS \
	epsBulk 78.4 \
	pMol 0.92466 \
	epsInf 1.77 \
	Pvap 1.06736e-10 \
	sigmaBulk 4.62e-05 \
	Rvdw 2.61727 \
	Res 1.42 \
	tauNuc 343133 \
	poleEl 15 7 1
forces-output-coords Positions
ion Si   0.000000000000000   0.000000000000000   0.000000000000000 0
ion Si   0.250000000000000   0.250000000000000   0.250000000000000 0
ion-species GBRV/$ID_pbe.uspp
ion-width 0
ionic-minimize  \
	dirUpdateScheme      L-BFGS \
	linminMethod         DirUpdateRecommended \
	nIterations          0 \
	history              15 \
	knormThreshold       0.0001 \
	energyDiffThreshold  1e-06 \
	nEnergyDiff          2 \
	alphaTstart          1 \
	alphaTmin            1e-10 \
	updateTestStepSize   yes \
	alphaTreduceFactor   0.1 \
	alphaTincreaseFactor 3 \
	nAlphaAdjustMax      3 \
	wolfeEnergy          0.0001 \
	wolfeGradient        0.9 \
	fdTest               no
kpoint   0.000000000000   0.000000000000   0.000000000000  1.00000000000000
kpoint-folding 6 6 6 
latt-move-scale 1 1 1
latt-scale 1.88973 1.88973 1.88973 
lattice Face-Centered Cubic 5.43
lattice-minimize  \
	dirUpdateScheme      L-BFGS \
	linminMethod         DirUpdateRecommended \
	nIterations          0 \
	history              15 \
	knormThreshold       0 \
	energyDiffThreshold  1e-06 \
	nEnergyDiff          2 \
	alphaTstart          1 \
	alphaTmin            1e-10 \
	updateTestStepSize   yes \
	alphaTreduceFactor   0.1 \
	alphaTincreaseFactor 3 \
	nAlphaAdjustMax      3 \
	wolfeEnergy          0.0001 \
	wolfeGradient        0.9 \
	fdTest               no
lcao-params -1 1e-06 0.001
pcm-variant GLSSA13
spintype no-spin
subspace-rotation-factor 1 yes
symmetries automatic
symmetry-threshold 0.0001



---------- Setting up symmetries ----------

Found 48 point-group symmetries of the bravais lattice
Found 48 space-group symmetries with basis
Applied RMS atom displacement 0 bohrs to make symmetries exact.

---------- Initializing the Grid ----------
R = 
[            0      5.13062      5.13062  ]
[      5.13062            0      5.13062  ]
[      5.13062      5.13062            0  ]
unit cell volume = 270.109
G =
[  -0.612323   0.612323   0.612323  ]
[   0.612323  -0.612323   0.612323  ]
[   0.612323   0.612323  -0.612323  ]
Minimum fftbox size, Smin = [  36  36  36  ]
Chosen fftbox size, S = [  36  36  36  ]

---------- Initializing tighter grid for wavefunction operations ----------
R = 
[            0      5.13062      5.13062  ]
[      5.13062            0      5.13062  ]
[      5.13062      5.13062            0  ]
unit cell volume = 270.109
G =
[  -0.612323   0.612323   0.612323  ]
[   0.612323  -0.612323   0.612323  ]
[   0.612323   0.612323  -0.612323  ]
Minimum fftbox size, Smin = [  24  24  24  ]
Chosen fftbox size, S = [  24  24  24  ]

---------- Exchange Correlation functional ----------
Initalized PBE GGA exchange.
Initalized PBE GGA correlation.

---------- Setting up pseudopotentials ----------
Width of ionic core gaussian charges (only for fluid interactions / plotting) set to 0

Reading pseudopotential file '/Users/ali/Desktop/JDFTX/build-withlibxc/pseudopotentials/GBRV/si_pbe.uspp':
  Title: Si.  Created by USPP 7.3.6 on 14-9-2013
  Reference state energy: -4.599342.  4 valence electrons in orbitals:
    |300>  occupation: 2  eigenvalue: -0.397366
    |310>  occupation: 2  eigenvalue: -0.149981
  lMax: 2  lLocal: 3  QijEcut: 5
  6 projectors sampled on a log grid with 627 points:
    l: 0  eig: -0.397364  rCut: 1.6
    l: 0  eig: 1.000000  rCut: 1.6
    l: 1  eig: -0.149982  rCut: 1.6
    l: 1  eig: 1.000000  rCut: 1.6
    l: 2  eig: -0.100000  rCut: 1.7
    l: 2  eig: 0.100000  rCut: 1.7
  Partial core density with radius 1.45
  Transforming core density to a uniform radial grid of dG=0.02 with 1833 points.
  Transforming local potential to a uniform radial grid of dG=0.02 with 1833 points.
  Transforming nonlocal projectors to a uniform radial grid of dG=0.02 with 307 points.
  Transforming density augmentations to a uniform radial grid of dG=0.02 with 1833 points.
  Transforming atomic orbitals to a uniform radial grid of dG=0.02 with 307 points.
  Core radius for overlap checks: 1.70 bohrs.

Initialized 1 species with 2 total atoms.

Folded 1 k-points by 6x6x6 to 216 k-points.

---------- Setting up k-points, bands, fillings ----------
Reduced to 16 k-points under symmetry. 
Computing the number of bands and number of electrons
Calculating initial fillings.
nElectrons:   8.000000   nBands: 4   nStates: 16

----- Setting up reduced wavefunction bases (one per k-point) -----
average nbasis = 406.681 , ideal nbasis = 407.974

---------- Setting up ewald sum ----------
Optimum gaussian width for ewald sums = 2.330237 bohr.
Real space sum over 1331 unit cells with max indices [  5  5  5  ]
Reciprocal space sum over 2197 terms with max indices [  6  6  6  ]

---------- Allocating electronic variables ----------
Initializing wave functions:  linear combination of atomic orbitals
Si pseudo-atom occupations:   s ( 2 )  p ( 2 )
	FillingsUpdate:  mu: +0.265557128  nElectrons: 8.000000
LCAOMinimize: Iter:   0  Etot: -7.8848653052755360  |grad|_K:  8.386e-05  alpha:  1.000e+00
	FillingsUpdate:  mu: +0.265501828  nElectrons: 8.000000
LCAOMinimize: Iter:   1  Etot: -7.8848696641083329  |grad|_K:  2.346e-06  alpha:  9.564e-01  linmin:  1.168e-03  cgtest: -1.751e-03  t[s]:      1.55
	FillingsUpdate:  mu: +0.265503341  nElectrons: 8.000000
LCAOMinimize: Iter:   2  Etot: -7.8848696676469929  |grad|_K:  5.685e-09  alpha:  9.922e-01  linmin: -1.337e-02  cgtest:  6.171e-02  t[s]:      1.67
LCAOMinimize: Encountered beta<0, resetting CG.
	FillingsUpdate:  mu: +0.265503345  nElectrons: 8.000000
LCAOMinimize: Iter:   3  Etot: -7.8848696676470214  |grad|_K:  1.103e-09  alpha:  1.161e+00  linmin:  4.548e-01  cgtest: -9.828e-01  t[s]:      1.79
LCAOMinimize: Converged (|Delta Etot|<1.000000e-06 for 2 iters).


---- Citations for features of the code used in this run ----

   Software package:
      R. Sundararaman, K. Letchworth-Weaver, K.A. Schwarz, D. Gunceler, Y. Ozhabes and T.A. Arias, 'JDFTx: software for joint density-functional theory', SoftwareX 6, 278 (2017)

   gga-PBE exchange-correlation functional:
      J.P. Perdew, K. Burke and M. Ernzerhof, Phys. Rev. Lett. 77, 3865 (1996)

   Pseudopotentials:
      KF Garrity, JW Bennett, KM Rabe and D Vanderbilt, Comput. Mater. Sci. 81, 446 (2014)

   Total energy minimization:
      T.A. Arias, M.C. Payne and J.D. Joannopoulos, Phys. Rev. Lett. 69, 1077 (1992)

This list may not be complete. Please suggest additional citations or
report any other bugs at https://github.com/shankar1729/jdftx/issues

Initialization completed successfully at t[s]:      1.80


-------- Electronic minimization -----------
ElecMinimize: Iter:   0  Etot: -7.884869667647018  |grad|_K:  1.024e-03  alpha:  1.000e+00
ElecMinimize: Iter:   1  Etot: -7.935503880712175  |grad|_K:  3.426e-04  alpha:  1.853e+00  linmin: -7.781e-03  t[s]:      2.02
ElecMinimize: Iter:   2  Etot: -7.941123486789341  |grad|_K:  9.628e-05  alpha:  1.832e+00  linmin: -5.612e-05  t[s]:      2.14
ElecMinimize: Iter:   3  Etot: -7.941562572029053  |grad|_K:  4.077e-05  alpha:  1.819e+00  linmin: -1.071e-05  t[s]:      2.26
ElecMinimize: Iter:   4  Etot: -7.941657462422311  |grad|_K:  2.218e-05  alpha:  2.193e+00  linmin: -5.837e-05  t[s]:      2.37
ElecMinimize: Iter:   5  Etot: -7.941682394427239  |grad|_K:  1.022e-05  alpha:  1.946e+00  linmin: -2.509e-06  t[s]:      2.47
ElecMinimize: Iter:   6  Etot: -7.941687380928115  |grad|_K:  4.678e-06  alpha:  1.836e+00  linmin:  4.273e-06  t[s]:      2.58
ElecMinimize: Iter:   7  Etot: -7.941688380098149  |grad|_K:  2.137e-06  alpha:  1.754e+00  linmin:  1.271e-06  t[s]:      2.68
ElecMinimize: Iter:   8  Etot: -7.941688594833907  |grad|_K:  1.123e-06  alpha:  1.806e+00  linmin:  3.392e-07  t[s]:      2.79
ElecMinimize: Iter:   9  Etot: -7.941688659563170  |grad|_K:  6.465e-07  alpha:  1.971e+00  linmin: -1.391e-07  t[s]:      2.91
ElecMinimize: Iter:  10  Etot: -7.941688681924335  |grad|_K:  3.565e-07  alpha:  2.055e+00  linmin: -7.637e-07  t[s]:      3.02
ElecMinimize: Iter:  11  Etot: -7.941688688507918  |grad|_K:  1.986e-07  alpha:  1.990e+00  linmin:  3.203e-07  t[s]:      3.14
ElecMinimize: Iter:  12  Etot: -7.941688690541876  |grad|_K:  1.136e-07  alpha:  1.981e+00  linmin: -2.381e-06  t[s]:      3.25
ElecMinimize: Converged (|Delta Etot|<1.000000e-08 for 2 iters).
Setting wave functions to eigenvectors of Hamiltonian

# Ionic positions in lattice coordinates:
ion Si   0.000000000000000   0.000000000000000   0.000000000000000 0
ion Si   0.250000000000000   0.250000000000000   0.250000000000000 0

# Forces in Lattice coordinates:
force Si   0.000000000000000  -0.000000000000000  -0.000000000000000 0
force Si  -0.000000000000000   0.000000000000000   0.000000000000000 0

# Energy components:
   Eewald =       -8.3994546412464199
       EH =        0.5598754458772601
     Eloc =       -2.1044658660911475
      Enl =        1.6324669084790409
      Exc =       -4.3115804699774145
 Exc_core =        1.6535544468665375
       KE =        3.0279154855502677
-------------------------------------
     Etot =       -7.9416886905418762

IonicMinimize: Iter:   0  Etot: -7.941688690541876  |grad|_K:  0.000e+00  t[s]:      3.30
IonicMinimize: Converged (|grad|_K<1.000000e-04).

#--- Lowdin population analysis ---
# oxidation-state Si +0.035 +0.035

End date and time: Tue Apr  6 19:41:01 2021  (Duration: 0-0:00:03.31)
Done!
