
*************** JDFTx 1.6.0  ***************

Start date and time: Tue Apr  6 19:41:05 2021
Executable jdftx with command-line: -i Si.in
Running on hosts (process indices):  dhcp-10-31-192-89.dyn.MIT.EDU (0-3)
Divided in process groups (process indices):  0 (0)  1 (1)  2 (2)  3 (3)
Resource initialization completed at t[s]:      0.00
Run totals: 4 processes, 8 threads, 0 GPUs


Input parsed successfully to the following command list (including defaults):

basis kpoint-dependent
coords-type Lattice
core-overlap-check vector
coulomb-interaction Periodic
davidson-band-ratio 1.1
dump End None
dump-name Si610200.$VAR
elec-cutoff 10 200
elec-eigen-algo Davidson
elec-ex-corr gga-PBE
electronic-minimize  \
	dirUpdateScheme      FletcherReeves \
	linminMethod         DirUpdateRecommended \
	nIterations          100 \
	history              15 \
	knormThreshold       0 \
	energyDiffThreshold  1e-08 \
	nEnergyDiff          2 \
	alphaTstart          1 \
	alphaTmin            1e-10 \
	updateTestStepSize   yes \
	alphaTreduceFactor   0.1 \
	alphaTincreaseFactor 3 \
	nAlphaAdjustMax      3 \
	wolfeEnergy          0.0001 \
	wolfeGradient        0.9 \
	fdTest               no
exchange-regularization WignerSeitzTruncated
fluid None
fluid-ex-corr  lda-PZ
fluid-gummel-loop 10 1.000000e-05
fluid-minimize  \
	dirUpdateScheme      PolakRibiere \
	linminMethod         DirUpdateRecommended \
	nIterations          100 \
	history              15 \
	knormThreshold       0 \
	energyDiffThreshold  0 \
	nEnergyDiff          2 \
	alphaTstart          1 \
	alphaTmin            1e-10 \
	updateTestStepSize   yes \
	alphaTreduceFactor   0.1 \
	alphaTincreaseFactor 3 \
	nAlphaAdjustMax      3 \
	wolfeEnergy          0.0001 \
	wolfeGradient        0.9 \
	fdTest               no
fluid-solvent H2O 55.338 ScalarEOS \
	epsBulk 78.4 \
	pMol 0.92466 \
	epsInf 1.77 \
	Pvap 1.06736e-10 \
	sigmaBulk 4.62e-05 \
	Rvdw 2.61727 \
	Res 1.42 \
	tauNuc 343133 \
	poleEl 15 7 1
forces-output-coords Positions
ion Si   0.000000000000000   0.000000000000000   0.000000000000000 0
ion Si   0.250000000000000   0.250000000000000   0.250000000000000 0
ion-species GBRV/$ID_pbe.uspp
ion-width 0
ionic-minimize  \
	dirUpdateScheme      L-BFGS \
	linminMethod         DirUpdateRecommended \
	nIterations          0 \
	history              15 \
	knormThreshold       0.0001 \
	energyDiffThreshold  1e-06 \
	nEnergyDiff          2 \
	alphaTstart          1 \
	alphaTmin            1e-10 \
	updateTestStepSize   yes \
	alphaTreduceFactor   0.1 \
	alphaTincreaseFactor 3 \
	nAlphaAdjustMax      3 \
	wolfeEnergy          0.0001 \
	wolfeGradient        0.9 \
	fdTest               no
kpoint   0.000000000000   0.000000000000   0.000000000000  1.00000000000000
kpoint-folding 6 6 6 
latt-move-scale 1 1 1
latt-scale 1.88973 1.88973 1.88973 
lattice Face-Centered Cubic 5.43
lattice-minimize  \
	dirUpdateScheme      L-BFGS \
	linminMethod         DirUpdateRecommended \
	nIterations          0 \
	history              15 \
	knormThreshold       0 \
	energyDiffThreshold  1e-06 \
	nEnergyDiff          2 \
	alphaTstart          1 \
	alphaTmin            1e-10 \
	updateTestStepSize   yes \
	alphaTreduceFactor   0.1 \
	alphaTincreaseFactor 3 \
	nAlphaAdjustMax      3 \
	wolfeEnergy          0.0001 \
	wolfeGradient        0.9 \
	fdTest               no
lcao-params -1 1e-06 0.001
pcm-variant GLSSA13
spintype no-spin
subspace-rotation-factor 1 yes
symmetries automatic
symmetry-threshold 0.0001



---------- Setting up symmetries ----------

Found 48 point-group symmetries of the bravais lattice
Found 48 space-group symmetries with basis
Applied RMS atom displacement 0 bohrs to make symmetries exact.

---------- Initializing the Grid ----------
R = 
[            0      5.13062      5.13062  ]
[      5.13062            0      5.13062  ]
[      5.13062      5.13062            0  ]
unit cell volume = 270.109
G =
[  -0.612323   0.612323   0.612323  ]
[   0.612323  -0.612323   0.612323  ]
[   0.612323   0.612323  -0.612323  ]
Minimum fftbox size, Smin = [  48  48  48  ]
Chosen fftbox size, S = [  48  48  48  ]

---------- Initializing tighter grid for wavefunction operations ----------
R = 
[            0      5.13062      5.13062  ]
[      5.13062            0      5.13062  ]
[      5.13062      5.13062            0  ]
unit cell volume = 270.109
G =
[  -0.612323   0.612323   0.612323  ]
[   0.612323  -0.612323   0.612323  ]
[   0.612323   0.612323  -0.612323  ]
Minimum fftbox size, Smin = [  24  24  24  ]
Chosen fftbox size, S = [  24  24  24  ]

---------- Exchange Correlation functional ----------
Initalized PBE GGA exchange.
Initalized PBE GGA correlation.

---------- Setting up pseudopotentials ----------
Width of ionic core gaussian charges (only for fluid interactions / plotting) set to 0

Reading pseudopotential file '/Users/ali/Desktop/JDFTX/build-withlibxc/pseudopotentials/GBRV/si_pbe.uspp':
  Title: Si.  Created by USPP 7.3.6 on 14-9-2013
  Reference state energy: -4.599342.  4 valence electrons in orbitals:
    |300>  occupation: 2  eigenvalue: -0.397366
    |310>  occupation: 2  eigenvalue: -0.149981
  lMax: 2  lLocal: 3  QijEcut: 5
  6 projectors sampled on a log grid with 627 points:
    l: 0  eig: -0.397364  rCut: 1.6
    l: 0  eig: 1.000000  rCut: 1.6
    l: 1  eig: -0.149982  rCut: 1.6
    l: 1  eig: 1.000000  rCut: 1.6
    l: 2  eig: -0.100000  rCut: 1.7
    l: 2  eig: 0.100000  rCut: 1.7
  Partial core density with radius 1.45
  Transforming core density to a uniform radial grid of dG=0.02 with 2443 points.
  Transforming local potential to a uniform radial grid of dG=0.02 with 2443 points.
  Transforming nonlocal projectors to a uniform radial grid of dG=0.02 with 307 points.
  Transforming density augmentations to a uniform radial grid of dG=0.02 with 2443 points.
  Transforming atomic orbitals to a uniform radial grid of dG=0.02 with 307 points.
  Core radius for overlap checks: 1.70 bohrs.

Initialized 1 species with 2 total atoms.

Folded 1 k-points by 6x6x6 to 216 k-points.

---------- Setting up k-points, bands, fillings ----------
Reduced to 16 k-points under symmetry. 
Computing the number of bands and number of electrons
Calculating initial fillings.
nElectrons:   8.000000   nBands: 4   nStates: 16

----- Setting up reduced wavefunction bases (one per k-point) -----
average nbasis = 406.681 , ideal nbasis = 407.974

---------- Setting up ewald sum ----------
Optimum gaussian width for ewald sums = 2.330237 bohr.
Real space sum over 1331 unit cells with max indices [  5  5  5  ]
Reciprocal space sum over 2197 terms with max indices [  6  6  6  ]

---------- Allocating electronic variables ----------
Initializing wave functions:  linear combination of atomic orbitals
Si pseudo-atom occupations:   s ( 2 )  p ( 2 )
	FillingsUpdate:  mu: +0.265561417  nElectrons: 8.000000
LCAOMinimize: Iter:   0  Etot: -7.8848585495535470  |grad|_K:  8.699e-05  alpha:  1.000e+00
	FillingsUpdate:  mu: +0.265501489  nElectrons: 8.000000
LCAOMinimize: Iter:   1  Etot: -7.8848632273738550  |grad|_K:  2.262e-06  alpha:  9.538e-01  linmin:  1.801e-03  cgtest: -2.901e-03  t[s]:      2.26
	FillingsUpdate:  mu: +0.265502872  nElectrons: 8.000000
LCAOMinimize: Iter:   2  Etot: -7.8848632306708861  |grad|_K:  7.621e-09  alpha:  9.949e-01  linmin: -9.049e-03  cgtest:  5.314e-02  t[s]:      2.47
LCAOMinimize: Encountered beta<0, resetting CG.
	FillingsUpdate:  mu: +0.265502880  nElectrons: 8.000000
LCAOMinimize: Iter:   3  Etot: -7.8848632306709190  |grad|_K:  5.152e-09  alpha:  1.613e+00  linmin:  5.245e-01  cgtest: -9.973e-01  t[s]:      2.67
LCAOMinimize: Converged (|Delta Etot|<1.000000e-06 for 2 iters).


---- Citations for features of the code used in this run ----

   Software package:
      R. Sundararaman, K. Letchworth-Weaver, K.A. Schwarz, D. Gunceler, Y. Ozhabes and T.A. Arias, 'JDFTx: software for joint density-functional theory', SoftwareX 6, 278 (2017)

   gga-PBE exchange-correlation functional:
      J.P. Perdew, K. Burke and M. Ernzerhof, Phys. Rev. Lett. 77, 3865 (1996)

   Pseudopotentials:
      KF Garrity, JW Bennett, KM Rabe and D Vanderbilt, Comput. Mater. Sci. 81, 446 (2014)

   Total energy minimization:
      T.A. Arias, M.C. Payne and J.D. Joannopoulos, Phys. Rev. Lett. 69, 1077 (1992)

This list may not be complete. Please suggest additional citations or
report any other bugs at https://github.com/shankar1729/jdftx/issues

Initialization completed successfully at t[s]:      2.68


-------- Electronic minimization -----------
ElecMinimize: Iter:   0  Etot: -7.884863230670914  |grad|_K:  1.024e-03  alpha:  1.000e+00
ElecMinimize: Iter:   1  Etot: -7.935497612918809  |grad|_K:  3.426e-04  alpha:  1.853e+00  linmin: -7.780e-03  t[s]:      3.06
ElecMinimize: Iter:   2  Etot: -7.941117374280904  |grad|_K:  9.629e-05  alpha:  1.832e+00  linmin: -5.610e-05  t[s]:      3.24
ElecMinimize: Iter:   3  Etot: -7.941556486416058  |grad|_K:  4.077e-05  alpha:  1.819e+00  linmin: -1.071e-05  t[s]:      3.47
ElecMinimize: Iter:   4  Etot: -7.941651383541672  |grad|_K:  2.218e-05  alpha:  2.193e+00  linmin: -5.836e-05  t[s]:      3.70
ElecMinimize: Iter:   5  Etot: -7.941676317276015  |grad|_K:  1.022e-05  alpha:  1.946e+00  linmin: -2.509e-06  t[s]:      3.91
ElecMinimize: Iter:   6  Etot: -7.941681304235679  |grad|_K:  4.678e-06  alpha:  1.836e+00  linmin:  4.274e-06  t[s]:      4.22
ElecMinimize: Iter:   7  Etot: -7.941682303490067  |grad|_K:  2.137e-06  alpha:  1.754e+00  linmin:  1.248e-06  t[s]:      4.46
ElecMinimize: Iter:   8  Etot: -7.941682518239975  |grad|_K:  1.123e-06  alpha:  1.806e+00  linmin:  3.857e-07  t[s]:      4.68
ElecMinimize: Iter:   9  Etot: -7.941682582970679  |grad|_K:  6.465e-07  alpha:  1.971e+00  linmin: -8.483e-07  t[s]:      4.87
ElecMinimize: Iter:  10  Etot: -7.941682605332308  |grad|_K:  3.565e-07  alpha:  2.055e+00  linmin:  8.728e-07  t[s]:      5.08
ElecMinimize: Iter:  11  Etot: -7.941682611916137  |grad|_K:  1.986e-07  alpha:  1.990e+00  linmin: -4.327e-07  t[s]:      5.30
ElecMinimize: Iter:  12  Etot: -7.941682613950204  |grad|_K:  1.136e-07  alpha:  1.981e+00  linmin: -7.266e-07  t[s]:      5.48
ElecMinimize: Converged (|Delta Etot|<1.000000e-08 for 2 iters).
Setting wave functions to eigenvectors of Hamiltonian

# Ionic positions in lattice coordinates:
ion Si   0.000000000000000   0.000000000000000   0.000000000000000 0
ion Si   0.250000000000000   0.250000000000000   0.250000000000000 0

# Forces in Lattice coordinates:
force Si   0.000000000000000  -0.000000000000000  -0.000000000000000 0
force Si  -0.000000000000000   0.000000000000000  -0.000000000000000 0

# Energy components:
   Eewald =       -8.3994546412464199
       EH =        0.5598762250127972
     Eloc =       -2.1044627784985339
      Enl =        1.6324661253477317
      Exc =       -4.3115812182317530
 Exc_core =        1.6535533804097902
       KE =        3.0279202932561864
-------------------------------------
     Etot =       -7.9416826139502037

IonicMinimize: Iter:   0  Etot: -7.941682613950204  |grad|_K:  0.000e+00  t[s]:      5.58
IonicMinimize: Converged (|grad|_K<1.000000e-04).

#--- Lowdin population analysis ---
# oxidation-state Si +0.035 +0.035

End date and time: Tue Apr  6 19:41:11 2021  (Duration: 0-0:00:05.59)
Done!
