
*************** JDFTx 1.6.0  ***************

Start date and time: Tue Apr  6 19:41:11 2021
Executable jdftx with command-line: -i Si.in
Running on hosts (process indices):  dhcp-10-31-192-89.dyn.MIT.EDU (0-3)
Divided in process groups (process indices):  0 (0)  1 (1)  2 (2)  3 (3)
Resource initialization completed at t[s]:      0.00
Run totals: 4 processes, 8 threads, 0 GPUs


Input parsed successfully to the following command list (including defaults):

basis kpoint-dependent
coords-type Lattice
core-overlap-check vector
coulomb-interaction Periodic
davidson-band-ratio 1.1
dump End None
dump-name Si620100.$VAR
elec-cutoff 20 100
elec-eigen-algo Davidson
elec-ex-corr gga-PBE
electronic-minimize  \
	dirUpdateScheme      FletcherReeves \
	linminMethod         DirUpdateRecommended \
	nIterations          100 \
	history              15 \
	knormThreshold       0 \
	energyDiffThreshold  1e-08 \
	nEnergyDiff          2 \
	alphaTstart          1 \
	alphaTmin            1e-10 \
	updateTestStepSize   yes \
	alphaTreduceFactor   0.1 \
	alphaTincreaseFactor 3 \
	nAlphaAdjustMax      3 \
	wolfeEnergy          0.0001 \
	wolfeGradient        0.9 \
	fdTest               no
exchange-regularization WignerSeitzTruncated
fluid None
fluid-ex-corr  lda-PZ
fluid-gummel-loop 10 1.000000e-05
fluid-minimize  \
	dirUpdateScheme      PolakRibiere \
	linminMethod         DirUpdateRecommended \
	nIterations          100 \
	history              15 \
	knormThreshold       0 \
	energyDiffThreshold  0 \
	nEnergyDiff          2 \
	alphaTstart          1 \
	alphaTmin            1e-10 \
	updateTestStepSize   yes \
	alphaTreduceFactor   0.1 \
	alphaTincreaseFactor 3 \
	nAlphaAdjustMax      3 \
	wolfeEnergy          0.0001 \
	wolfeGradient        0.9 \
	fdTest               no
fluid-solvent H2O 55.338 ScalarEOS \
	epsBulk 78.4 \
	pMol 0.92466 \
	epsInf 1.77 \
	Pvap 1.06736e-10 \
	sigmaBulk 4.62e-05 \
	Rvdw 2.61727 \
	Res 1.42 \
	tauNuc 343133 \
	poleEl 15 7 1
forces-output-coords Positions
ion Si   0.000000000000000   0.000000000000000   0.000000000000000 0
ion Si   0.250000000000000   0.250000000000000   0.250000000000000 0
ion-species GBRV/$ID_pbe.uspp
ion-width 0
ionic-minimize  \
	dirUpdateScheme      L-BFGS \
	linminMethod         DirUpdateRecommended \
	nIterations          0 \
	history              15 \
	knormThreshold       0.0001 \
	energyDiffThreshold  1e-06 \
	nEnergyDiff          2 \
	alphaTstart          1 \
	alphaTmin            1e-10 \
	updateTestStepSize   yes \
	alphaTreduceFactor   0.1 \
	alphaTincreaseFactor 3 \
	nAlphaAdjustMax      3 \
	wolfeEnergy          0.0001 \
	wolfeGradient        0.9 \
	fdTest               no
kpoint   0.000000000000   0.000000000000   0.000000000000  1.00000000000000
kpoint-folding 6 6 6 
latt-move-scale 1 1 1
latt-scale 1.88973 1.88973 1.88973 
lattice Face-Centered Cubic 5.43
lattice-minimize  \
	dirUpdateScheme      L-BFGS \
	linminMethod         DirUpdateRecommended \
	nIterations          0 \
	history              15 \
	knormThreshold       0 \
	energyDiffThreshold  1e-06 \
	nEnergyDiff          2 \
	alphaTstart          1 \
	alphaTmin            1e-10 \
	updateTestStepSize   yes \
	alphaTreduceFactor   0.1 \
	alphaTincreaseFactor 3 \
	nAlphaAdjustMax      3 \
	wolfeEnergy          0.0001 \
	wolfeGradient        0.9 \
	fdTest               no
lcao-params -1 1e-06 0.001
pcm-variant GLSSA13
spintype no-spin
subspace-rotation-factor 1 yes
symmetries automatic
symmetry-threshold 0.0001



---------- Setting up symmetries ----------

Found 48 point-group symmetries of the bravais lattice
Found 48 space-group symmetries with basis
Applied RMS atom displacement 0 bohrs to make symmetries exact.

---------- Initializing the Grid ----------
R = 
[            0      5.13062      5.13062  ]
[      5.13062            0      5.13062  ]
[      5.13062      5.13062            0  ]
unit cell volume = 270.109
G =
[  -0.612323   0.612323   0.612323  ]
[   0.612323  -0.612323   0.612323  ]
[   0.612323   0.612323  -0.612323  ]
Minimum fftbox size, Smin = [  36  36  36  ]
Chosen fftbox size, S = [  36  36  36  ]

---------- Initializing tighter grid for wavefunction operations ----------
R = 
[            0      5.13062      5.13062  ]
[      5.13062            0      5.13062  ]
[      5.13062      5.13062            0  ]
unit cell volume = 270.109
G =
[  -0.612323   0.612323   0.612323  ]
[   0.612323  -0.612323   0.612323  ]
[   0.612323   0.612323  -0.612323  ]
Minimum fftbox size, Smin = [  32  32  32  ]
Chosen fftbox size, S = [  32  32  32  ]

---------- Exchange Correlation functional ----------
Initalized PBE GGA exchange.
Initalized PBE GGA correlation.

---------- Setting up pseudopotentials ----------
Width of ionic core gaussian charges (only for fluid interactions / plotting) set to 0

Reading pseudopotential file '/Users/ali/Desktop/JDFTX/build-withlibxc/pseudopotentials/GBRV/si_pbe.uspp':
  Title: Si.  Created by USPP 7.3.6 on 14-9-2013
  Reference state energy: -4.599342.  4 valence electrons in orbitals:
    |300>  occupation: 2  eigenvalue: -0.397366
    |310>  occupation: 2  eigenvalue: -0.149981
  lMax: 2  lLocal: 3  QijEcut: 5
  6 projectors sampled on a log grid with 627 points:
    l: 0  eig: -0.397364  rCut: 1.6
    l: 0  eig: 1.000000  rCut: 1.6
    l: 1  eig: -0.149982  rCut: 1.6
    l: 1  eig: 1.000000  rCut: 1.6
    l: 2  eig: -0.100000  rCut: 1.7
    l: 2  eig: 0.100000  rCut: 1.7
  Partial core density with radius 1.45
  Transforming core density to a uniform radial grid of dG=0.02 with 1833 points.
  Transforming local potential to a uniform radial grid of dG=0.02 with 1833 points.
  Transforming nonlocal projectors to a uniform radial grid of dG=0.02 with 432 points.
  Transforming density augmentations to a uniform radial grid of dG=0.02 with 1833 points.
  Transforming atomic orbitals to a uniform radial grid of dG=0.02 with 432 points.
  Core radius for overlap checks: 1.70 bohrs.

Initialized 1 species with 2 total atoms.

Folded 1 k-points by 6x6x6 to 216 k-points.

---------- Setting up k-points, bands, fillings ----------
Reduced to 16 k-points under symmetry. 
Computing the number of bands and number of electrons
Calculating initial fillings.
nElectrons:   8.000000   nBands: 4   nStates: 16

----- Setting up reduced wavefunction bases (one per k-point) -----
average nbasis = 1152.079 , ideal nbasis = 1153.925

---------- Setting up ewald sum ----------
Optimum gaussian width for ewald sums = 2.330237 bohr.
Real space sum over 1331 unit cells with max indices [  5  5  5  ]
Reciprocal space sum over 2197 terms with max indices [  6  6  6  ]

---------- Allocating electronic variables ----------
Initializing wave functions:  linear combination of atomic orbitals
Si pseudo-atom occupations:   s ( 2 )  p ( 2 )
	FillingsUpdate:  mu: +0.267438623  nElectrons: 8.000000
LCAOMinimize: Iter:   0  Etot: -7.8854774221579280  |grad|_K:  9.842e-05  alpha:  1.000e+00
	FillingsUpdate:  mu: +0.267361649  nElectrons: 8.000000
LCAOMinimize: Iter:   1  Etot: -7.8854833850139983  |grad|_K:  2.548e-06  alpha:  9.500e-01  linmin: -2.516e-04  cgtest:  8.926e-04  t[s]:      1.40
	FillingsUpdate:  mu: +0.267363274  nElectrons: 8.000000
LCAOMinimize: Iter:   2  Etot: -7.8854833892027880  |grad|_K:  4.031e-09  alpha:  9.956e-01  linmin: -2.939e-02  cgtest:  7.573e-02  t[s]:      1.56
LCAOMinimize: Encountered beta<0, resetting CG.
LCAOMinimize: 	Wrong curvature in test step, increasing alphaT to 2.986776e+00.
	FillingsUpdate:  mu: +0.267363272  nElectrons: 8.000000
LCAOMinimize: Iter:   3  Etot: -7.8854833892028093  |grad|_K:  1.264e-10  alpha:       -inf  linmin:  1.089e-01  cgtest: -3.415e-01  t[s]:      1.70
LCAOMinimize: Converged (|Delta Etot|<1.000000e-06 for 2 iters).


---- Citations for features of the code used in this run ----

   Software package:
      R. Sundararaman, K. Letchworth-Weaver, K.A. Schwarz, D. Gunceler, Y. Ozhabes and T.A. Arias, 'JDFTx: software for joint density-functional theory', SoftwareX 6, 278 (2017)

   gga-PBE exchange-correlation functional:
      J.P. Perdew, K. Burke and M. Ernzerhof, Phys. Rev. Lett. 77, 3865 (1996)

   Pseudopotentials:
      KF Garrity, JW Bennett, KM Rabe and D Vanderbilt, Comput. Mater. Sci. 81, 446 (2014)

   Total energy minimization:
      T.A. Arias, M.C. Payne and J.D. Joannopoulos, Phys. Rev. Lett. 69, 1077 (1992)

This list may not be complete. Please suggest additional citations or
report any other bugs at https://github.com/shankar1729/jdftx/issues

Initialization completed successfully at t[s]:      1.73


-------- Electronic minimization -----------
ElecMinimize: Iter:   0  Etot: -7.885483389202806  |grad|_K:  6.070e-04  alpha:  1.000e+00
ElecMinimize: Iter:   1  Etot: -7.935934467875592  |grad|_K:  2.020e-04  alpha:  1.854e+00  linmin: -6.781e-03  t[s]:      2.13
ElecMinimize: Iter:   2  Etot: -7.941471041696538  |grad|_K:  5.833e-05  alpha:  1.833e+00  linmin: -3.371e-05  t[s]:      2.26
ElecMinimize: Iter:   3  Etot: -7.941936750343468  |grad|_K:  2.606e-05  alpha:  1.856e+00  linmin: -8.055e-06  t[s]:      2.41
ElecMinimize: Iter:   4  Etot: -7.942058648316998  |grad|_K:  1.609e-05  alpha:  2.433e+00  linmin: -4.853e-05  t[s]:      2.56
ElecMinimize: Iter:   5  Etot: -7.942098444390333  |grad|_K:  8.354e-06  alpha:  2.083e+00  linmin: -6.477e-06  t[s]:      2.74
ElecMinimize: Iter:   6  Etot: -7.942108116034592  |grad|_K:  4.348e-06  alpha:  1.879e+00  linmin:  8.452e-07  t[s]:      2.90
ElecMinimize: Iter:   7  Etot: -7.942110547164047  |grad|_K:  2.108e-06  alpha:  1.743e+00  linmin:  1.275e-06  t[s]:      3.05
ElecMinimize: Iter:   8  Etot: -7.942111151888880  |grad|_K:  1.084e-06  alpha:  1.844e+00  linmin:  3.824e-07  t[s]:      3.19
ElecMinimize: Iter:   9  Etot: -7.942111320490663  |grad|_K:  5.732e-07  alpha:  1.945e+00  linmin: -6.328e-07  t[s]:      3.36
ElecMinimize: Iter:  10  Etot: -7.942111366657045  |grad|_K:  2.868e-07  alpha:  1.905e+00  linmin: -1.205e-07  t[s]:      3.51
ElecMinimize: Iter:  11  Etot: -7.942111378079492  |grad|_K:  1.492e-07  alpha:  1.883e+00  linmin: -1.606e-06  t[s]:      3.66
ElecMinimize: Iter:  12  Etot: -7.942111381267818  |grad|_K:  8.269e-08  alpha:  1.941e+00  linmin: -7.164e-08  t[s]:      3.82
ElecMinimize: Iter:  13  Etot: -7.942111382305285  |grad|_K:  4.821e-08  alpha:  2.057e+00  linmin: -3.883e-06  t[s]:      3.98
ElecMinimize: Converged (|Delta Etot|<1.000000e-08 for 2 iters).
Setting wave functions to eigenvectors of Hamiltonian

# Ionic positions in lattice coordinates:
ion Si   0.000000000000000   0.000000000000000   0.000000000000000 0
ion Si   0.250000000000000   0.250000000000000   0.250000000000000 0

# Forces in Lattice coordinates:
force Si  -0.000000000000000  -0.000000000000000   0.000000000000000 0
force Si   0.000000000000000  -0.000000000000000  -0.000000000000000 0

# Energy components:
   Eewald =       -8.3994546412464199
       EH =        0.5600038498954143
     Eloc =       -2.1064068231249848
      Enl =        1.6292917416178267
      Exc =       -4.3117810938740249
 Exc_core =        1.6535544468665375
       KE =        3.0326811375603651
-------------------------------------
     Etot =       -7.9421113823052849

IonicMinimize: Iter:   0  Etot: -7.942111382305285  |grad|_K:  0.000e+00  t[s]:      4.04
IonicMinimize: Converged (|grad|_K<1.000000e-04).

#--- Lowdin population analysis ---
# oxidation-state Si +0.035 +0.035

End date and time: Tue Apr  6 19:41:15 2021  (Duration: 0-0:00:04.05)
Done!
